------------------------------------------------------------
          Invoking FHI-aims ...

          When using FHI-aims, please cite the following reference:

            Volker Blum, Ralf Gehrke, Felix Hanke, Paula Havu,
            Ville Havu, Xinguo Ren, Karsten Reuter, and Matthias Scheffler,
            'Ab Initio Molecular Simulations with Numeric Atom-Centered Orbitals',
            Computer Physics Communications 180, 2175-2196 (2009)

          In addition, many other developments in FHI-aims are likely important for
          your particular application. A partial list of references is given at the end of
          this file. Thank you for giving credit to the authors of these developments.

          For any questions about FHI-aims, please visit our slack channel at

            https://fhi-aims.slack.com

          and our main development and support site at

            https://aims-git.rz-berlin.mpg.de .

          The latter site, in particular, has a wiki to collect information, as well
          as an issue tracker to log discussions, suggest improvements, and report issues
          or bugs. https://aims-git.rz-berlin.mpg.de is also the main development site
          of the project and all new and updated code versions can be obtained there.
          Please send an email to aims-coordinators@fhi-berlin.mpg.de and we will add
          you to these sites. They are for you and everyone is welcome there.

------------------------------------------------------------



  Date     :  20220423, Time     :  182601.265
  Time zero on CPU 1             :   0.320340000000000E-01  s.
  Internal wall clock time zero  :           419970361.265  s.

  FHI-aims created a unique identifier for this run for later identification
  aims_uuid : A0A64CF4-5FB5-4D98-AFB0-8D2E7A03F578

  Build configuration of the current instance of FHI-aims
  -------------------------------------------------------
  FHI-aims version      : 210513
  Commit number         : 11338b508
  CMake host system     : Linux-4.15.0-43-generic
  CMake version         : 3.19.5
  Fortran compiler      : /home/quan/intel/oneapi/mpi/2021.2.0/bin/mpiifort (Intel) version 20.2.2.20210228
  Fortran compiler flags: -O3 -ip -fp-model precise
  C compiler            : /home/quan/intel/oneapi/mpi/2021.2.0/bin/mpiicc (Intel) version 20.2.2.20210228
  C compiler flags      : -O3 -ip -fp-model precise -std=gnu99
  Using MPI
  Using ScaLAPACK
  Using LibXC
  Using i-PI
  Using RLSY
  Linking against: /home/quan/intel/oneapi/mkl/2021.2.0/lib/intel64/libmkl_intel_lp64.so
                   /home/quan/intel/oneapi/mkl/2021.2.0/lib/intel64/libmkl_sequential.so
                   /home/quan/intel/oneapi/mkl/2021.2.0/lib/intel64/libmkl_core.so
                   /home/quan/intel/oneapi/mkl/2021.2.0/lib/intel64/libmkl_blacs_intelmpi_lp64.so
                   /home/quan/intel/oneapi/mkl/2021.2.0/lib/intel64/libmkl_scalapack_lp64.so

  Using        2 parallel tasks.
  Task        0 on host theobook reporting.
  Task        1 on host theobook reporting.

  Performing system and environment tests:
  *** Environment variable OMP_NUM_THREADS is not set
  *** For performance reasons you might want to set it to 1
  | Checking for ScaLAPACK...
  | Testing pdtran()...
  | All pdtran() tests passed.

  Obtaining array dimensions for all initial allocations:
  
  -----------------------------------------------------------------------
  Parsing control.in (first pass over file, find array dimensions only).
  The contents of control.in will be repeated verbatim below
  unless switched off by setting 'verbatim_writeout .false.' .
  in the first line of control.in .
  -----------------------------------------------------------------------
  
  ## Physical  settings
  xc                 pbe
  spin               none
  relativistic       atomic_zora scalar
  ## SCF  settings
  sc_accuracy_rho     1E-6
  sc_iter_limit        100
  k_grid   2 2 1
  output band -0.5 0.0 0.0   0.5 0.0 0.0     64
  # BZU
  KS_method serial
  use_full_spectrum .true.
  #bs_unfolding  .true.
  
  # matrix
  output hamiltonian_matrix
  output overlap_matrix
  
  ################################################################################
  #
  #  FHI-aims code project
  #  VB, Fritz-Haber Institut, 2009
  #
  #  Suggested "light" defaults for H atom (to be pasted into control.in file)
  #  Be sure to double-check any results obtained with these settings for post-processing,
  #  e.g., with the "tight" defaults and larger basis sets.
  #
  ################################################################################
    species        H
  #     global species definitions
      nucleus             1
      mass                1.00794
  #
      l_hartree           4
  #
      cut_pot             3.5  1.5  1.0
      basis_dep_cutoff    1e-4
  #
      radial_base         24 5.0
      radial_multiplier   1
      angular_grids       specified
        division   0.2421   50
        division   0.3822  110
        division   0.4799  194
        division   0.5341  302
  #      division   0.5626  434
  #      division   0.5922  590
  #      division   0.6542  770
  #      division   0.6868 1202
  #      outer_grid  770
        outer_grid  302
  ################################################################################
  #
  #  Definition of "minimal" basis
  #
  ################################################################################
  #     valence basis states
      valence      1  s   1.
  #     ion occupancy
      ion_occ      1  s   0.5
  ################################################################################
  #
  #  Suggested additional basis functions. For production calculations,
  #  uncomment them one after another (the most important basis functions are
  #  listed first).
  #
  #  Basis constructed for dimers: 0.5 A, 0.7 A, 1.0 A, 1.5 A, 2.5 A
  #
  ################################################################################
  #  "First tier" - improvements: -1014.90 meV to -62.69 meV
      hydro 2 s 2.1
      hydro 2 p 3.5
  #  "Second tier" - improvements: -12.89 meV to -1.83 meV
  #     hydro 1 s 0.85
  #     hydro 2 p 3.7
  #     hydro 2 s 1.2
  #     hydro 3 d 7
  #  "Third tier" - improvements: -0.25 meV to -0.12 meV
  #     hydro 4 f 11.2
  #     hydro 3 p 4.8
  #     hydro 4 d 9
  #     hydro 3 s 3.2
  
  -----------------------------------------------------------------------
  Completed first pass over input file control.in .
  -----------------------------------------------------------------------
  
  
  -----------------------------------------------------------------------
  Parsing geometry.in (first pass over file, find array dimensions only).
  The contents of geometry.in will be repeated verbatim below
  unless switched off by setting 'verbatim_writeout .false.' .
  in the first line of geometry.in .
  -----------------------------------------------------------------------
  
  lattice_vector 3.0000000000000000 0.0000000000000000 0.0000000000000000
  lattice_vector 0.0000000000000000 1.5000000000000000 0.0000000000000000
  lattice_vector 0.0000000000000000 0.0000000000000000 1.5000000000000000
  atom           0.0000000000000000 0.0000000000000000  0.0000000000000000 H
  atom           1.5000000000000000 0.0000000000000000  0.0000000000000000 H
  
  -----------------------------------------------------------------------
  Completed first pass over input file geometry.in .
  -----------------------------------------------------------------------
  

  Basic array size parameters:
  | Number of species                 :        1
  | Number of atoms                   :        2
  | Number of lattice vectors         :        3
  | Max. basis fn. angular momentum   :        1
  | Max. atomic/ionic basis occupied n:        1
  | Max. number of basis fn. types    :        2
  | Max. radial fns per species/type  :        2
  | Max. logarithmic grid size        :     1131
  | Max. radial integration grid size :       24
  | Max. angular integration grid size:      302
  | Max. angular grid division number :        8
  | Radial grid for Hartree potential :     1131
  | Number of spin channels           :        1

------------------------------------------------------------
          Reading file control.in.
------------------------------------------------------------
  XC: Using PBE gradient-corrected functionals.
  Spin treatment: No spin polarisation.
  Scalar relativistic treatment of kinetic energy: on-site free-atom approximation to ZORA.
  Convergence accuracy of self-consistent charge density:  0.1000E-05
  Maximum number of s.-c. iterations  :   100
  Found k-point grid:         2         2         1

  Plot band    1
  | begin -0.500000  0.000000  0.000000
  | end    0.500000  0.000000  0.000000
  | number of points:   64
  Kohn-Sham eigenvalues and eigenfunctions calculated by LAPACK via ELSI.
  Calculating the full spectrum for the basis set (i.e. includes all empty states.)
  The hamiltonian matrix will be written out for the k-points requested by 'output band'.
  The overlap matrix will be written out for the k-points requested by 'output band'.
  The overlap matrix will be written out for the k-points requested by 'output band'.
 
  Reading configuration options for species H                   .
  | Found nuclear charge :   1.0000
  | Found atomic mass :    1.00794000000000      amu
  | Found l_max for Hartree potential  :   4
  | Found cutoff potl. onset [A], width [A], scale factor :    3.50000    1.50000    1.00000
  | Threshold for basis-dependent cutoff potential is   0.100000E-03
  | Found data for basic radial integration grid :    24 points, outermost radius =    5.000 A
  | Found multiplier for basic radial grid :   1
  | Found angular grid specification: user-specified.
  | Specified grid contains     5 separate shells.
  | Check grid settings after all constraints further below.
  | Found free-atom valence shell :  1 s   1.000
  | No ionic wave fns used. Skipping ion_occ.
  | Found hydrogenic basis function :  2 s   2.100
  | Found hydrogenic basis function :  2 p   3.500
  Species H                   : Missing cutoff potential type.
  Defaulting to exp(1/x)/(1-x)^2 type cutoff potential.
  Species H : No 'logarithmic' tag. Using default grid for free atom:
  | Default logarithmic grid data [bohr] : 0.1000E-03 0.1000E+03 0.1012E+01
  Species H : On-site basis accuracy parameter (for Gram-Schmidt orthonormalisation) not specified.
  Using default value basis_acc =  0.1000000E-03.
  Species H                   : Using default innermost maximum threshold i_radial=  2 for radial functions.
  Species H                   : Default cutoff onset for free atom density etc. : 0.35000000E+01 AA.
  Species H                   : Basic radial grid will be enhanced according to radial_multiplier =   1, to contain    24 grid points.
 
  Finished reading input file 'control.in'.
 
------------------------------------------------------------


------------------------------------------------------------
          Reading geometry description geometry.in.
------------------------------------------------------------
  | The smallest distance between any two atoms is         1.50000000 AA.
  | The first atom of this pair is atom number                      1 .
  | The second atom of this pair is atom number                     2 .
  | Wigner-Seitz cell of the first atom image           0     0     0 .
  | (The Wigner-Seitz cell of the second atom is 0 0 0  by definition.)

  Symmetry information by spglib:
  | Precision set to  0.1E-04
  | Number of Operations  : 32
  | Space group           : 221
  | International         : Pm-3m
  | Schoenflies           : Oh^1
  Input structure read successfully.
  The structure contains        2 atoms,  and a total of          2.000 electrons.

  Input geometry:
  | Unit cell:
  |        3.00000000        0.00000000        0.00000000
  |        0.00000000        1.50000000        0.00000000
  |        0.00000000        0.00000000        1.50000000
  | Atomic structure:
  |       Atom                x [A]            y [A]            z [A]
  |    1: Species H             0.00000000        0.00000000        0.00000000
  |    2: Species H             1.50000000        0.00000000        0.00000000

  Lattice parameters for 3D lattice (in Angstroms) :     3.000000    1.500000    1.500000
  Angle(s) between unit vectors (in degrees)       :    90.000000   90.000000   90.000000


  Quantities derived from the lattice vectors:
  | Reciprocal lattice vector 1:  2.094395  0.000000  0.000000
  | Reciprocal lattice vector 2:  0.000000  4.188790  0.000000
  | Reciprocal lattice vector 3:  0.000000  0.000000  4.188790
  | Unit cell volume                               :   0.675000E+01  A^3

  Fractional coordinates:
                         L1                L2                L3
       atom_frac         0.00000000        0.00000000        0.00000000  H
       atom_frac         0.50000000        0.00000000        0.00000000  H

 
  Finished reading input file 'control.in'.
 

------------------------------------------------------------
          Reading geometry description geometry.in.
------------------------------------------------------------
 
  Consistency checks for stacksize environment parameter are next.
 
  | Maximum stacksize for task 0: unlimited
  | Maximum stacksize for task 1: unlimited
  | Current stacksize for task 0: unlimited
  | Current stacksize for task 1: unlimited
 
  Consistency checks for the contents of control.in are next.
 
  MPI_IN_PLACE appears to work with this MPI implementation.
  | Keeping use_mpi_in_place .true. (see manual).
  Target number of points in a grid batch is not set. Defaulting to  100
  Method for grid partitioning is not set. Defaulting to parallel hash+maxmin partitioning.
  Batch size limit is not set. Defaulting to    200
  By default, will store active basis functions for each batch.
  If in need of memory, prune_basis_once .false. can be used to disable this option.
  communication_type for Hartree potential was not specified.
  Defaulting to calc_hartree .
  Defaulting to Pulay charge density mixer.
  Pulay mixer: Number of relevant iterations not set.
  Defaulting to    8 iterations.
  Pulay mixer: Number of initial linear mixing iterations not set.
  Defaulting to    0 iterations.
  Work space size for distributed Hartree potential not set.
  Defaulting to   0.200000E+03 MB.
  Mixing parameter for charge density mixing has not been set.
  Using default: charge_mix_param =     0.0500.
  The mixing parameter will be adjusted in iteration number     2 of the first full s.c.f. cycle only.
  Algorithm-dependent basis array size parameters:
  | n_max_pulay                         :        8
  Presetting      1001 iterations before the initial mixing cycle
  is restarted anyway using the sc_init_iter criterion / keyword.
  Presetting a factor      1.000 between actual scf density residual
  and density convergence criterion sc_accuracy_rho below which sc_init_iter
  takes no effect.
  Calculation of forces was not defined in control.in. No forces will be calculated.
  Geometry relaxation not requested: no relaxation will be performed.
  No accuracy limit for integral partition fn. given. Defaulting to  0.1000E-14.
  No threshold value for u(r) in integrations given. Defaulting to  0.1000E-05.
  No occupation type (smearing scheme) given. Defaulting to Gaussian broadening, width =  0.1000E-01 eV.
  The width will be adjusted in iteration number     2 of the first full s.c.f. cycle only.
  S.C.F. convergence parameters will be adjusted in iteration number     2 of the first full s.c.f. cycle only.
  No accuracy for occupation numbers given. Defaulting to  0.1000E-12.
  No threshold value for occupation numbers given. Defaulting to  0.0000E+00.
  No accuracy for fermi level given. Defaulting to  0.1000E-19.
  Maximum # of iterations to find E_F not set. Defaulting to  200.
  Will not use alltoall communication since running on < 1024 CPUs.
  Threshold for basis singularities not set.
  Default threshold for basis singularities:  0.1000E-04
  partition_type (choice of integration weights) for integrals was not specified.
  | Using a version of the partition function of Stratmann and coworkers ('stratmann_sparse').
  | At each grid point, the set of atoms used to build the partition table is smoothly restricted to
  | only those atoms whose free-atom density would be non-zero at that grid point.
  Partitioning for Hartree potential was not defined. Using partition_type for integrals.
  | Adjusted default value of keyword multip_moments_threshold to:       0.10000000E-11
  | This value may affect high angular momentum components of the Hartree potential in periodic systems.
  Angular momentum expansion for Kerker preconditioner not set explicitly.
  | Using default value of   0
  No explicit requirement for turning off preconditioner.
  | By default, it will be turned off when the charge convergence reaches
  | sc_accuracy_rho  =   0.100000E-05
  No special mixing parameter while Kerker preconditioner is on.
  Using default: charge_mix_param =     0.0500.
  No q(lm)/r^(l+1) cutoff set for long-range Hartree potential.
  | Using default value of  0.100000E-09 .
  | Verify using the multipole_threshold keyword.
  Defaulting to new monopole extrapolation.
  Density update method: automatic selection selected.
  Using density matrix based charge density update.
  Using density matrix based charge density update.
  Using packed matrix style: index .
  Defaulting to use time-reversal symmetry for k-point grid.
  Charge integration errors on the 3D integration grid will be compensated
  by explicit normalization and distribution of residual charges.
  Use the "compensate_multipole_errors" flag to change this behaviour.
  Set 'collect_eigenvectors' to be '.true.' for all serial calculations. This is mandatory.
  Set 'collect_eigenvectors' to be '.true.' for KS_method lapack_fast and serial.
 
  Consistency checks for the contents of geometry.in are next.
 

  Range separation radius for Ewald summation (hartree_convergence_parameter):      2.50000000 bohr.
  Number of empty states per atom not set in control.in .
  | Since you are using a method that relies on the unoccupied spectrum
  | (MP2,GW,RPA et al.), will use the full Hamiltonian size (see below)
  | as the max. possible number of states (occupied plus empty).

  Structure-dependent array size parameters: 
  | Maximum number of distinct radial functions  :        3
  | Maximum number of basis functions            :       10
  | Number of Kohn-Sham states (occupied + empty):       10
------------------------------------------------------------

------------------------------------------------------------
          Preparing all fixed parts of the calculation.
------------------------------------------------------------
  Determining machine precision:
    2.225073858507201E-308
  Setting up grids for atomic and cluster calculations.

  Creating wave function, potential, and density for free atoms.

  Species: H

  List of occupied orbitals and eigenvalues:
    n    l              occ      energy [Ha]    energy [eV]
    1    0           1.0000        -0.237593        -6.4652


  Adding cutoff potential to free-atom effective potential.
  Creating fixed part of basis set: Ionic, confined, hydrogenic.
 
  H                    hydrogenic:
 
  List of hydrogenic basis orbitals: 
    n    l      effective z      eigenvalue [eV]  inner max. [A]     outer max. [A]     outer radius [A]   
    2    0         2.100000       -14.9728           0.193243           1.317208           4.583499
    2    1         3.500000       -41.6669           0.602369           0.602369           3.723403
 
  Creating atomic-like basis functions for current effective potential.

  Species H                   :

  List of atomic basis orbitals and eigenvalues:
    n    l      energy [Ha]    energy [eV]    outer radius [A]
    1    0        -0.237593        -6.4652       4.527807

  Assembling full basis from fixed parts.
  | Species H :   atomic orbital   1 s accepted.
  | Species H :    hydro orbital   2 s accepted.
  | Species H :    hydro orbital   2 p accepted.
 
  Basis size parameters after reduction:
  | Total number of radial functions:        3
  | Total number of basis functions :       10
 
  Per-task memory consumption for arrays in subroutine allocate_ext:
  |           0.869040MB.
  Testing on-site integration grid accuracy.
  |  Species  Function  <phi|h_atom|phi> (log., in eV)  <phi|h_atom|phi> (rad., in eV)
           1        1                 -6.4664147733                 -6.4652229287
           1        2                 13.7099062243                 13.7158503352
           1        3                 25.2661739479                 25.2663166526

  Preparing densities etc. for the partition functions (integrals / Hartree potential).

  Preparations completed.
  max(cpu_time)          :      0.053 s.
  Wall clock time (cpu1) :      0.068 s.
------------------------------------------------------------

------------------------------------------------------------
          Begin self-consistency loop: Initialization.

          Date     :  20220423, Time     :  182601.414
------------------------------------------------------------

  Initializing index lists of integration centers etc. from given atomic structure:
  Mapping all atomic coordinates to central unit cell.

  Initializing the k-points
  Using symmetry for reducing the k-points
  | k-points reduced from:        4 to        4
  | Number of k-points                             :         4
  | Consuming          0 KiB for k_phase_exx.
  The eigenvectors in the calculations are COMPLEX.
  | K-points in task   0:         2
  | K-points in task   1:         2
  | Number of basis functions in the Hamiltonian integrals :      1251
  | Number of basis functions in a single unit cell        :        10
  | Number of centers in hartree potential         :      2514
  | Number of centers in hartree multipole         :      1744
  | Number of centers in electron density summation:      1174
  | Number of centers in basis integrals           :      1326
  | Number of centers in integrals                 :       341
  | Number of centers in hamiltonian               :      1174
  | Consuming         41 KiB for k_phase.
  | Number of super-cells (origin) [n_cells]                     :        3971
  | Number of super-cells (after PM_index) [n_cells]             :         656
  | Number of super-cells in hamiltonian [n_cells_in_hamiltonian]:         656
  | Size of matrix packed + index [n_hamiltonian_matrix_size] :       20897
  | Estimated reciprocal-space cutoff momentum G_max:         3.81257049 bohr^-1 .
  | Reciprocal lattice points for long-range Hartree potential:      38
  Partitioning the integration grid into batches with parallel hashing+maxmin method.
  | Number of batches:      128
  | Maximal batch size:      88
  | Minimal batch size:      62
  | Average batch size:      74.062
  | Standard deviation of batch sizes:       6.479

  Integration load balanced across     2 MPI tasks.
  Work distribution over tasks is as follows:
  Task     0 has       4698 integration points.
  Task     1 has       4782 integration points.
  Initializing partition tables, free-atom densities, potentials, etc. across the integration grid (initialize_grid_storage).
  | initialize_grid_storage: Actual outermost partition radius vs. multipole_radius_free
  | (-- VB: in principle, multipole_radius_free should be larger, hence this output)
  | Species        1: Confinement radius =              4.999999999999999 AA, multipole_radius_free =              5.054417573612229 AA.
  | Species        1: outer_partition_radius set to              5.054417573612229 AA .
  | The sparse table of interatomic distances needs       9793.64 kbyte instead of     14066.21 kbyte of memory.
  | Net number of integration points:     9480
  | of which are non-zero points    :     6260
  | Numerical average free-atom electrostatic potential    :     -8.97540596 eV
  Renormalizing the initial density to the exact electron count on the 3D integration grid.
  | Initial density: Formal number of electrons (from input files) :       2.0000000000
  | Integrated number of electrons on 3D grid     :       2.0018738042
  | Charge integration error                      :       0.0018738042
  | Normalization factor for density and gradient :       0.9990639749
  Renormalizing the free-atom superposition density to the exact electron count on the 3D integration grid.
  | Formal number of electrons (from input files) :       2.0000000000
  | Integrated number of electrons on 3D grid     :       2.0018738042
  | Charge integration error                      :       0.0018738042
  | Normalization factor for density and gradient :       0.9990639749
  Obtaining max. number of non-zero basis functions in each batch (get_n_compute_maxes).
  | Maximal number of non-zero basis functions:      596 in task     0
  | Maximal number of non-zero basis functions:      592 in task     1
  Allocating        0.003 MB for KS_eigenvector_complex
  Integrating Hamiltonian matrix: batch-based integration.
  Time summed over all CPUs for integration: real work        0.640 s, elapsed        0.654 s
  Integrating overlap matrix.
  Time summed over all CPUs for integration: real work        0.427 s, elapsed        0.433 s
  Decreasing sparse matrix size:
  | Tolerance:  0.1000E-12
  Hamiltonian matrix
  | Array has    16902 nonzero elements out of    20897 elements
  | Sparsity factor is 0.191
  Overlap matrix
  | Array has    15692 nonzero elements out of    20897 elements
  | Sparsity factor is 0.249
  New size of hamiltonian matrix:       16921

  Updating Kohn-Sham eigenvalues and eigenvectors using ELSI and the (modified) LAPACK eigensolver.
  Singularity check in k-point 2, task 0 (analysis for other k-points/tasks may follow below):
  Overlap matrix is not singular
  | Lowest and highest eigenvalues :  0.4971E-02,  0.2975E+01
  Finished singularity check of overlap matrix
  | Time :     0.007 s
  Starting LAPACK eigensolver
  Finished Cholesky decomposition
  | Time :     0.003 s
  Finished transformation to standard eigenproblem
  | Time :     0.003 s
  Finished solving standard eigenproblem
  | Time :     0.002 s
  Finished back-transformation of eigenvectors
  | Time :     0.000 s

  Obtaining occupation numbers and chemical potential using ELSI.
  | Chemical potential (Fermi level):    -8.72712640 eV
  Writing Kohn-Sham eigenvalues.
  K-point:       1 at    0.000000    0.000000    0.000000 (in units of recip. lattice)

  State    Occupation    Eigenvalue [Ha]    Eigenvalue [eV]
      1       2.00000          -0.785616          -21.37769
      2       1.00000          -0.320716           -8.72713
      3       0.00000           0.111705            3.03965
      4       0.00000           1.587895           43.20882
      5       0.00000           2.246368           61.12678
      6       0.00000           2.246368           61.12678
      7       0.00000           2.246368           61.12678
      8       0.00000           2.361167           64.25063
      9       0.00000           2.672150           72.71290
     10       0.00000           2.672150           72.71290

  What follows are estimated values for band gap, HOMO, LUMO, etc.
  | They are estimated on a discrete k-point grid and not necessarily exact.
  | For converged numbers, create a DOS and/or band structure plot on a denser k-grid.

  Highest occupied state (VBM) at     -8.72712640 eV (relative to internal zero)
  | Occupation number:      1.00000000
  | K-point:       2 at    0.000000    0.500000    0.000000 (in units of recip. lattice)

  Lowest unoccupied state (CBM) at    -8.72712640 eV (relative to internal zero)
  | Occupation number:      1.00000000
  | K-point:       1 at    0.000000    0.000000    0.000000 (in units of recip. lattice)

  ESTIMATED overall HOMO-LUMO gap:      0.00000000 eV between HOMO at k-point 2 and LUMO at k-point 1
  | This appears to be an indirect band gap.
  | Smallest direct gap :     11.05744891 eV for k_point 2 at    0.000000    0.500000    0.000000 (in units of recip. lattice)
  However, this system has fractional occupation numbers. Since we use a finite k-point grid,
  this material is metallic within the approximate finite broadening function (occupation_type)
  applied to determine the occupation numbers.
  Calculating total energy contributions from superposition of free atom densities.

  Total energy components:
  | Sum of eigenvalues            :          -1.19292593 Ha         -32.46116624 eV
  | XC energy correction          :          -0.64958741 Ha         -17.67617268 eV
  | XC potential correction       :           0.84450917 Ha          22.98026376 eV
  | Free-atom electrostatic energy:          -0.36842609 Ha         -10.02538387 eV
  | Hartree energy correction     :           0.00000000 Ha           0.00000000 eV
  | Entropy correction            :          -0.00005183 Ha          -0.00141047 eV
  | ---------------------------
  | Total energy                  :          -1.36643025 Ha         -37.18245903 eV
  | Total energy, T -> 0          :          -1.36648209 Ha         -37.18386950 eV  <-- do not rely on this value for anything but (periodic) metals
  | Electronic free energy        :          -1.36653392 Ha         -37.18527998 eV

  Derived energy quantities:
  | Kinetic energy                :           0.69320023 Ha          18.86293801 eV
  | Electrostatic energy          :          -1.41004308 Ha         -38.36922436 eV
  | Energy correction for multipole
  | error in Hartree potential    :           0.00000000 Ha           0.00000000 eV
  | Sum of eigenvalues per atom                           :         -16.23058312 eV
  | Total energy (T->0) per atom                          :         -18.59193475 eV  <-- do not rely on this value for anything but (periodic) metals
  | Electronic free energy per atom                       :         -18.59263999 eV
  Initialize hartree_potential_storage
  Max. number of atoms included in rho_multipole:            2

  End scf initialization - timings             :  max(cpu_time)    wall_clock(cpu1)
  | Time for scf. initialization               :        2.833 s           2.879 s
  | Boundary condition initialization          :        0.240 s           0.240 s
  | Integration                                :        0.539 s           0.545 s
  | Solution of K.-S. eqns.                    :        0.003 s           0.020 s
  | Grid partitioning                          :        0.025 s           0.029 s
  | Preloading free-atom quantities on grid    :        1.905 s           1.912 s
  | Free-atom superposition energy             :        0.120 s           0.121 s
  | Total energy evaluation                    :        0.000 s           0.004 s

  Partial memory accounting:
  | Current value for overall tracked memory usage:
  |   Minimum:        0.326 MB (on task 0)
  |   Maximum:        0.326 MB (on task 0)
  |   Average:        0.326 MB
  | Peak value for overall tracked memory usage:
  |   Minimum:        9.435 MB (on task 0 after allocating min_atom_atom_tab)
  |   Maximum:        9.435 MB (on task 0 after allocating min_atom_atom_tab)
  |   Average:        9.435 MB
  | Largest tracked array allocation so far:
  |   Minimum:        6.223 MB (atom_atom_dist_list on task 0)
  |   Maximum:        6.223 MB (atom_atom_dist_list on task 0)
  |   Average:        6.223 MB
  Note:  These values currently only include a subset of arrays which are explicitly tracked.
  The "true" memory usage will be greater.
------------------------------------------------------------
  Evaluating new KS density using the density matrix
  Evaluating density matrix
  Time summed over all CPUs for getting density from density matrix: real work        0.899 s, elapsed        0.911 s
  Integration grid: deviation in total charge (<rho> - N_e) =  -5.329071E-15

  Time for density update prior                :  max(cpu_time)    wall_clock(cpu1)
  | self-consistency iterative process         :        0.456 s           0.457 s

------------------------------------------------------------
          Begin self-consistency iteration #    1

  Date     :  20220423, Time     :  182604.754
------------------------------------------------------------
  Pulay mixing of updated and previous charge densities.
  Renormalizing the density to the exact electron count on the 3D integration grid.
  | Formal number of electrons (from input files) :       2.0000000000
  | Integrated number of electrons on 3D grid     :       1.9999507904
  | Charge integration error                      :      -0.0000492096
  | Normalization factor for density and gradient :       1.0000246054

  Evaluating partitioned Hartree potential by multipole expansion.
  | Original multipole sum: apparent total charge =  -0.196119E-14
  | Sum of charges compensated after spline to logarithmic grids =   0.285186E-07
  | Analytical far-field extrapolation by fixed multipoles:
  | Hartree multipole sum: apparent total charge =   0.000000E+00
  Summing up the Hartree potential.
  Time summed over all CPUs for potential: real work        0.682 s, elapsed        0.698 s
  | RMS charge density error from multipole expansion :   0.191465E-03
  | Average real-space part of the electrostatic potential :      0.01082117 eV

  Integrating Hamiltonian matrix: batch-based integration.
  Time summed over all CPUs for integration: real work        0.632 s, elapsed        0.639 s

  Updating Kohn-Sham eigenvalues and eigenvectors using ELSI and the (modified) LAPACK eigensolver.
  Starting LAPACK eigensolver
  Finished Cholesky decomposition
  | Time :     0.000 s
  Finished transformation to standard eigenproblem
  | Time :     0.000 s
  Finished solving standard eigenproblem
  | Time :     0.000 s
  Finished back-transformation of eigenvectors
  | Time :     0.000 s

  Obtaining occupation numbers and chemical potential using ELSI.
  | Chemical potential (Fermi level):    -8.72779989 eV
  Writing Kohn-Sham eigenvalues.
  K-point:       1 at    0.000000    0.000000    0.000000 (in units of recip. lattice)

  State    Occupation    Eigenvalue [Ha]    Eigenvalue [eV]
      1       2.00000          -0.785592          -21.37705
      2       1.05100          -0.320757           -8.72825
      3       0.00000           0.111808            3.04244
      4       0.00000           1.588096           43.21429
      5       0.00000           2.246373           61.12693
      6       0.00000           2.246377           61.12704
      7       0.00000           2.246379           61.12709
      8       0.00000           2.361251           64.25290
      9       0.00000           2.672143           72.71270
     10       0.00000           2.672151           72.71294

  What follows are estimated values for band gap, HOMO, LUMO, etc.
  | They are estimated on a discrete k-point grid and not necessarily exact.
  | For converged numbers, create a DOS and/or band structure plot on a denser k-grid.

  Highest occupied state (VBM) at     -8.72825215 eV (relative to internal zero)
  | Occupation number:      1.05099685
  | K-point:       1 at    0.000000    0.000000    0.000000 (in units of recip. lattice)

  Lowest unoccupied state (CBM) at    -8.72734764 eV (relative to internal zero)
  | Occupation number:      0.94900315
  | K-point:       2 at    0.000000    0.500000    0.000000 (in units of recip. lattice)

  ESTIMATED overall HOMO-LUMO gap:      0.00090451 eV between HOMO at k-point 1 and LUMO at k-point 2
  | This appears to be an indirect band gap.
  | Smallest direct gap :     11.77069544 eV for k_point 1 at    0.000000    0.000000    0.000000 (in units of recip. lattice)
  However, this system has fractional occupation numbers. Since we use a finite k-point grid,
  this material is metallic within the approximate finite broadening function (occupation_type)
  applied to determine the occupation numbers.

  Total energy components:
  | Sum of eigenvalues            :          -1.19290938 Ha         -32.46071592 eV
  | XC energy correction          :          -0.64962909 Ha         -17.67730692 eV
  | XC potential correction       :           0.84456768 Ha          22.98185592 eV
  | Free-atom electrostatic energy:          -0.36842609 Ha         -10.02538387 eV
  | Hartree energy correction     :          -0.00006437 Ha          -0.00175168 eV
  | Entropy correction            :          -0.00005173 Ha          -0.00140759 eV
  | ---------------------------
  | Total energy                  :          -1.36646125 Ha         -37.18330247 eV
  | Total energy, T -> 0          :          -1.36651298 Ha         -37.18471006 eV  <-- do not rely on this value for anything but (periodic) metals
  | Electronic free energy        :          -1.36656471 Ha         -37.18611765 eV

  Derived energy quantities:
  | Kinetic energy                :           0.69318741 Ha          18.86258926 eV
  | Electrostatic energy          :          -1.41001957 Ha         -38.36858481 eV
  | Energy correction for multipole
  | error in Hartree potential    :           0.00001101 Ha           0.00029960 eV
  | Sum of eigenvalues per atom                           :         -16.23035796 eV
  | Total energy (T->0) per atom                          :         -18.59235503 eV  <-- do not rely on this value for anything but (periodic) metals
  | Electronic free energy per atom                       :         -18.59305882 eV
  Evaluating new KS density using the density matrix
  Evaluating density matrix
  Time summed over all CPUs for getting density from density matrix: real work        0.875 s, elapsed        0.885 s
  Integration grid: deviation in total charge (<rho> - N_e) =   7.638334E-14

  Self-consistency convergence accuracy:
  | Change of charge density      :  0.1981E-01
  | Change of sum of eigenvalues  :  0.4503E-03 eV
  | Change of total energy        : -0.8434E-03 eV


------------------------------------------------------------
  End self-consistency iteration #     1       :  max(cpu_time)    wall_clock(cpu1)
  | Time for this iteration                    :        1.402 s           1.406 s
  | Charge density update                      :        0.443 s           0.443 s
  | Density mixing & preconditioning           :        0.287 s           0.287 s
  | Hartree multipole update                   :        0.001 s           0.001 s
  | Hartree multipole summation                :        0.350 s           0.353 s
  | Integration                                :        0.321 s           0.321 s
  | Solution of K.-S. eqns.                    :        0.001 s           0.001 s
  | Total energy evaluation                    :        0.000 s           0.000 s

  Partial memory accounting:
  | Current value for overall tracked memory usage:
  |   Minimum:        0.326 MB (on task 0)
  |   Maximum:        0.326 MB (on task 0)
  |   Average:        0.326 MB
  | Peak value for overall tracked memory usage:
  |   Minimum:        9.435 MB (on task 0 after allocating min_atom_atom_tab)
  |   Maximum:        9.435 MB (on task 0 after allocating min_atom_atom_tab)
  |   Average:        9.435 MB
  | Largest tracked array allocation so far:
  |   Minimum:        6.223 MB (atom_atom_dist_list on task 0)
  |   Maximum:        6.223 MB (atom_atom_dist_list on task 0)
  |   Average:        6.223 MB
  Note:  These values currently only include a subset of arrays which are explicitly tracked.
  The "true" memory usage will be greater.
------------------------------------------------------------

------------------------------------------------------------
          Begin self-consistency iteration #    2

  Date     :  20220423, Time     :  182606.160
------------------------------------------------------------
  Pulay mixing of updated and previous charge densities.
  Renormalizing the density to the exact electron count on the 3D integration grid.
  | Formal number of electrons (from input files) :       2.0000000000
  | Integrated number of electrons on 3D grid     :       1.9996878582
  | Charge integration error                      :      -0.0003121418
  | Normalization factor for density and gradient :       1.0001560953

  Evaluating partitioned Hartree potential by multipole expansion.
  | Original multipole sum: apparent total charge =   0.662056E-14
  | Sum of charges compensated after spline to logarithmic grids =  -0.382034E-07
  | Analytical far-field extrapolation by fixed multipoles:
  | Hartree multipole sum: apparent total charge =   0.000000E+00
  Summing up the Hartree potential.
  Time summed over all CPUs for potential: real work        0.676 s, elapsed        0.690 s
  | RMS charge density error from multipole expansion :   0.137160E-02
  | Average real-space part of the electrostatic potential :      0.08174113 eV

  Integrating Hamiltonian matrix: batch-based integration.
  Time summed over all CPUs for integration: real work        0.611 s, elapsed        0.617 s

  Updating Kohn-Sham eigenvalues and eigenvectors using ELSI and the (modified) LAPACK eigensolver.
  Starting LAPACK eigensolver
  Finished Cholesky decomposition
  | Time :     0.000 s
  Finished transformation to standard eigenproblem
  | Time :     0.000 s
  Finished solving standard eigenproblem
  | Time :     0.000 s
  Finished back-transformation of eigenvectors
  | Time :     0.000 s

  Obtaining occupation numbers and chemical potential using ELSI.
  | Chemical potential (Fermi level):    -8.73138056 eV
  What follows are estimated values for band gap, HOMO, LUMO, etc.
  | They are estimated on a discrete k-point grid and not necessarily exact.
  | For converged numbers, create a DOS and/or band structure plot on a denser k-grid.

  Highest occupied state (VBM) at     -8.73548825 eV (relative to internal zero)
  | Occupation number:      1.43870226
  | K-point:       1 at    0.000000    0.000000    0.000000 (in units of recip. lattice)

  Lowest unoccupied state (CBM) at    -8.72727287 eV (relative to internal zero)
  | Occupation number:      0.56129774
  | K-point:       2 at    0.000000    0.500000    0.000000 (in units of recip. lattice)

  ESTIMATED overall HOMO-LUMO gap:      0.00821538 eV between HOMO at k-point 1 and LUMO at k-point 2
  | This appears to be an indirect band gap.
  | Smallest direct gap :     11.79790512 eV for k_point 1 at    0.000000    0.000000    0.000000 (in units of recip. lattice)
  However, this system has fractional occupation numbers. Since we use a finite k-point grid,
  this material is metallic within the approximate finite broadening function (occupation_type)
  applied to determine the occupation numbers.

  Checking to see if s.c.f. parameters should be adjusted.
  Adjusted the Pulay mixing parameter (charge_mix_param) for an expected low-gap system. New value:   0.020000 .
  Adjusted the occupation broadening width for an expected low-gap system. New value:      0.05000000 eV.

  Total energy components:
  | Sum of eigenvalues            :          -1.19276923 Ha         -32.45690209 eV
  | XC energy correction          :          -0.64997132 Ha         -17.68661962 eV
  | XC potential correction       :           0.84502627 Ha          22.99433485 eV
  | Free-atom electrostatic energy:          -0.36842609 Ha         -10.02538387 eV
  | Hartree energy correction     :          -0.00051148 Ha          -0.01391797 eV
  | Entropy correction            :          -0.00025743 Ha          -0.00700493 eV
  | ---------------------------
  | Total energy                  :          -1.36665184 Ha         -37.18848870 eV
  | Total energy, T -> 0          :          -1.36690927 Ha         -37.19549363 eV  <-- do not rely on this value for anything but (periodic) metals
  | Electronic free energy        :          -1.36716669 Ha         -37.20249856 eV

  Derived energy quantities:
  | Kinetic energy                :           0.69313784 Ha          18.86124041 eV
  | Electrostatic energy          :          -1.40981836 Ha         -38.36310949 eV
  | Energy correction for multipole
  | error in Hartree potential    :           0.00007793 Ha           0.00212050 eV
  | Sum of eigenvalues per atom                           :         -16.22845104 eV
  | Total energy (T->0) per atom                          :         -18.59774682 eV  <-- do not rely on this value for anything but (periodic) metals
  | Electronic free energy per atom                       :         -18.60124928 eV
  Evaluating new KS density using the density matrix
  Evaluating density matrix
  Time summed over all CPUs for getting density from density matrix: real work        0.952 s, elapsed        0.963 s
  Integration grid: deviation in total charge (<rho> - N_e) =  -7.949197E-14

  Self-consistency convergence accuracy:
  | Change of charge density      :  0.1920E-01
  | Change of sum of eigenvalues  :  0.3814E-02 eV
  | Change of total energy        : -0.5186E-02 eV


------------------------------------------------------------
  End self-consistency iteration #     2       :  max(cpu_time)    wall_clock(cpu1)
  | Time for this iteration                    :        1.434 s           1.437 s
  | Charge density update                      :        0.482 s           0.482 s
  | Density mixing & preconditioning           :        0.297 s           0.300 s
  | Hartree multipole update                   :        0.001 s           0.000 s
  | Hartree multipole summation                :        0.346 s           0.346 s
  | Integration                                :        0.309 s           0.309 s
  | Solution of K.-S. eqns.                    :        0.001 s           0.000 s
  | Total energy evaluation                    :        0.000 s           0.000 s

  Partial memory accounting:
  | Current value for overall tracked memory usage:
  |   Minimum:        0.326 MB (on task 0)
  |   Maximum:        0.326 MB (on task 0)
  |   Average:        0.326 MB
  | Peak value for overall tracked memory usage:
  |   Minimum:        9.435 MB (on task 0 after allocating min_atom_atom_tab)
  |   Maximum:        9.435 MB (on task 0 after allocating min_atom_atom_tab)
  |   Average:        9.435 MB
  | Largest tracked array allocation so far:
  |   Minimum:        6.223 MB (atom_atom_dist_list on task 0)
  |   Maximum:        6.223 MB (atom_atom_dist_list on task 0)
  |   Average:        6.223 MB
  Note:  These values currently only include a subset of arrays which are explicitly tracked.
  The "true" memory usage will be greater.
------------------------------------------------------------

------------------------------------------------------------
          Begin self-consistency iteration #    3

  Date     :  20220423, Time     :  182607.598
------------------------------------------------------------
  Pulay mixing of updated and previous charge densities.
  Renormalizing the density to the exact electron count on the 3D integration grid.
  | Formal number of electrons (from input files) :       2.0000000000
  | Integrated number of electrons on 3D grid     :       1.9995630132
  | Charge integration error                      :      -0.0004369868
  | Normalization factor for density and gradient :       1.0002185411

  Evaluating partitioned Hartree potential by multipole expansion.
  | Original multipole sum: apparent total charge =  -0.520671E-14
  | Sum of charges compensated after spline to logarithmic grids =  -0.143927E-06
  | Analytical far-field extrapolation by fixed multipoles:
  | Hartree multipole sum: apparent total charge =   0.000000E+00
  Summing up the Hartree potential.
  Time summed over all CPUs for potential: real work        0.688 s, elapsed        0.703 s
  | RMS charge density error from multipole expansion :   0.382223E-02
  | Average real-space part of the electrostatic potential :      0.13804581 eV

  Integrating Hamiltonian matrix: batch-based integration.
  Time summed over all CPUs for integration: real work        0.627 s, elapsed        0.634 s

  Updating Kohn-Sham eigenvalues and eigenvectors using ELSI and the (modified) LAPACK eigensolver.
  Starting LAPACK eigensolver
  Finished Cholesky decomposition
  | Time :     0.000 s
  Finished transformation to standard eigenproblem
  | Time :     0.000 s
  Finished solving standard eigenproblem
  | Time :     0.000 s
  Finished back-transformation of eigenvectors
  | Time :     0.000 s

  Obtaining occupation numbers and chemical potential using ELSI.
  | Chemical potential (Fermi level):    -8.73703506 eV
  What follows are estimated values for band gap, HOMO, LUMO, etc.
  | They are estimated on a discrete k-point grid and not necessarily exact.
  | For converged numbers, create a DOS and/or band structure plot on a denser k-grid.

  Highest occupied state (VBM) at     -8.74145883 eV (relative to internal zero)
  | Occupation number:      1.09957395
  | K-point:       2 at    0.000000    0.500000    0.000000 (in units of recip. lattice)

  Lowest unoccupied state (CBM) at    -8.73261129 eV (relative to internal zero)
  | Occupation number:      0.90042605
  | K-point:       1 at    0.000000    0.000000    0.000000 (in units of recip. lattice)

  ESTIMATED overall HOMO-LUMO gap:      0.00884754 eV between HOMO at k-point 2 and LUMO at k-point 1
  | This appears to be an indirect band gap.
  | Smallest direct gap :     11.06227674 eV for k_point 2 at    0.000000    0.500000    0.000000 (in units of recip. lattice)
  However, this system has fractional occupation numbers. Since we use a finite k-point grid,
  this material is metallic within the approximate finite broadening function (occupation_type)
  applied to determine the occupation numbers.

  Total energy components:
  | Sum of eigenvalues            :          -1.19193645 Ha         -32.43424112 eV
  | XC energy correction          :          -0.65115266 Ha         -17.71876536 eV
  | XC potential correction       :           0.84651226 Ha          23.03477051 eV
  | Free-atom electrostatic energy:          -0.36842609 Ha         -10.02538387 eV
  | Hartree energy correction     :          -0.00173407 Ha          -0.04718639 eV
  | Entropy correction            :          -0.00025715 Ha          -0.00699738 eV
  | ---------------------------
  | Total energy                  :          -1.36673701 Ha         -37.19080622 eV
  | Total energy, T -> 0          :          -1.36699416 Ha         -37.19780360 eV  <-- do not rely on this value for anything but (periodic) metals
  | Electronic free energy        :          -1.36725131 Ha         -37.20480098 eV

  Derived energy quantities:
  | Kinetic energy                :           0.69362943 Ha          18.87461720 eV
  | Electrostatic energy          :          -1.40921378 Ha         -38.34665807 eV
  | Energy correction for multipole
  | error in Hartree potential    :           0.00021657 Ha           0.00589309 eV
  | Sum of eigenvalues per atom                           :         -16.21712056 eV
  | Total energy (T->0) per atom                          :         -18.59890180 eV  <-- do not rely on this value for anything but (periodic) metals
  | Electronic free energy per atom                       :         -18.60240049 eV
  Evaluating new KS density using the density matrix
  Evaluating density matrix
  Time summed over all CPUs for getting density from density matrix: real work        0.867 s, elapsed        0.875 s
  Integration grid: deviation in total charge (<rho> - N_e) =   0.000000E+00

  Self-consistency convergence accuracy:
  | Change of charge density      :  0.1873E-01
  | Change of sum of eigenvalues  :  0.2266E-01 eV
  | Change of total energy        : -0.2318E-02 eV


------------------------------------------------------------
  End self-consistency iteration #     3       :  max(cpu_time)    wall_clock(cpu1)
  | Time for this iteration                    :        1.401 s           1.401 s
  | Charge density update                      :        0.438 s           0.438 s
  | Density mixing & preconditioning           :        0.292 s           0.292 s
  | Hartree multipole update                   :        0.001 s           0.000 s
  | Hartree multipole summation                :        0.352 s           0.353 s
  | Integration                                :        0.318 s           0.317 s
  | Solution of K.-S. eqns.                    :        0.001 s           0.001 s
  | Total energy evaluation                    :        0.000 s           0.000 s

  Partial memory accounting:
  | Current value for overall tracked memory usage:
  |   Minimum:        0.327 MB (on task 0)
  |   Maximum:        0.327 MB (on task 0)
  |   Average:        0.327 MB
  | Peak value for overall tracked memory usage:
  |   Minimum:        9.435 MB (on task 0 after allocating min_atom_atom_tab)
  |   Maximum:        9.435 MB (on task 0 after allocating min_atom_atom_tab)
  |   Average:        9.435 MB
  | Largest tracked array allocation so far:
  |   Minimum:        6.223 MB (atom_atom_dist_list on task 0)
  |   Maximum:        6.223 MB (atom_atom_dist_list on task 0)
  |   Average:        6.223 MB
  Note:  These values currently only include a subset of arrays which are explicitly tracked.
  The "true" memory usage will be greater.
------------------------------------------------------------

------------------------------------------------------------
          Begin self-consistency iteration #    4

  Date     :  20220423, Time     :  182608.999
------------------------------------------------------------
  Pulay mixing of updated and previous charge densities.
  Renormalizing the density to the exact electron count on the 3D integration grid.
  | Formal number of electrons (from input files) :       2.0000000000
  | Integrated number of electrons on 3D grid     :       2.0000302028
  | Charge integration error                      :       0.0000302028
  | Normalization factor for density and gradient :       0.9999848988

  Evaluating partitioned Hartree potential by multipole expansion.
  | Original multipole sum: apparent total charge =  -0.121090E-13
  | Sum of charges compensated after spline to logarithmic grids =  -0.141780E-06
  | Analytical far-field extrapolation by fixed multipoles:
  | Hartree multipole sum: apparent total charge =   0.000000E+00
  Summing up the Hartree potential.
  Time summed over all CPUs for potential: real work        0.680 s, elapsed        0.695 s
  | RMS charge density error from multipole expansion :   0.383599E-02
  | Average real-space part of the electrostatic potential :      0.12450736 eV

  Integrating Hamiltonian matrix: batch-based integration.
  Time summed over all CPUs for integration: real work        0.615 s, elapsed        0.623 s

  Updating Kohn-Sham eigenvalues and eigenvectors using ELSI and the (modified) LAPACK eigensolver.
  Starting LAPACK eigensolver
  Finished Cholesky decomposition
  | Time :     0.000 s
  Finished transformation to standard eigenproblem
  | Time :     0.000 s
  Finished solving standard eigenproblem
  | Time :     0.000 s
  Finished back-transformation of eigenvectors
  | Time :     0.000 s

  Obtaining occupation numbers and chemical potential using ELSI.
  | Chemical potential (Fermi level):    -8.73694488 eV
  What follows are estimated values for band gap, HOMO, LUMO, etc.
  | They are estimated on a discrete k-point grid and not necessarily exact.
  | For converged numbers, create a DOS and/or band structure plot on a denser k-grid.

  Highest occupied state (VBM) at     -8.74382788 eV (relative to internal zero)
  | Occupation number:      1.15435702
  | K-point:       2 at    0.000000    0.500000    0.000000 (in units of recip. lattice)

  Lowest unoccupied state (CBM) at    -8.73006188 eV (relative to internal zero)
  | Occupation number:      0.84564298
  | K-point:       1 at    0.000000    0.000000    0.000000 (in units of recip. lattice)

  ESTIMATED overall HOMO-LUMO gap:      0.01376600 eV between HOMO at k-point 2 and LUMO at k-point 1
  | This appears to be an indirect band gap.
  | Smallest direct gap :     11.06456556 eV for k_point 2 at    0.000000    0.500000    0.000000 (in units of recip. lattice)
  However, this system has fractional occupation numbers. Since we use a finite k-point grid,
  this material is metallic within the approximate finite broadening function (occupation_type)
  applied to determine the occupation numbers.

  Total energy components:
  | Sum of eigenvalues            :          -1.19192569 Ha         -32.43394812 eV
  | XC energy correction          :          -0.65116719 Ha         -17.71916089 eV
  | XC potential correction       :           0.84652856 Ha          23.03521405 eV
  | Free-atom electrostatic energy:          -0.36842609 Ha         -10.02538387 eV
  | Hartree energy correction     :          -0.00174438 Ha          -0.04746696 eV
  | Entropy correction            :          -0.00025430 Ha          -0.00691998 eV
  | ---------------------------
  | Total energy                  :          -1.36673479 Ha         -37.19074578 eV
  | Total energy, T -> 0          :          -1.36698909 Ha         -37.19766576 eV  <-- do not rely on this value for anything but (periodic) metals
  | Electronic free energy        :          -1.36724340 Ha         -37.20458575 eV

  Derived energy quantities:
  | Kinetic energy                :           0.69364708 Ha          18.87509738 eV
  | Electrostatic energy          :          -1.40921467 Ha         -38.34668227 eV
  | Energy correction for multipole
  | error in Hartree potential    :           0.00021634 Ha           0.00588680 eV
  | Sum of eigenvalues per atom                           :         -16.21697406 eV
  | Total energy (T->0) per atom                          :         -18.59883288 eV  <-- do not rely on this value for anything but (periodic) metals
  | Electronic free energy per atom                       :         -18.60229287 eV
  Evaluating new KS density using the density matrix
  Evaluating density matrix
  Time summed over all CPUs for getting density from density matrix: real work        0.874 s, elapsed        0.885 s
  Integration grid: deviation in total charge (<rho> - N_e) =  -5.684342E-14

  Self-consistency convergence accuracy:
  | Change of charge density      :  0.4668E-02
  | Change of sum of eigenvalues  :  0.2930E-03 eV
  | Change of total energy        :  0.6044E-04 eV


------------------------------------------------------------
  End self-consistency iteration #     4       :  max(cpu_time)    wall_clock(cpu1)
  | Time for this iteration                    :        1.398 s           1.398 s
  | Charge density update                      :        0.443 s           0.443 s
  | Density mixing & preconditioning           :        0.293 s           0.293 s
  | Hartree multipole update                   :        0.001 s           0.001 s
  | Hartree multipole summation                :        0.348 s           0.348 s
  | Integration                                :        0.312 s           0.312 s
  | Solution of K.-S. eqns.                    :        0.001 s           0.001 s
  | Total energy evaluation                    :        0.000 s           0.000 s

  Partial memory accounting:
  | Current value for overall tracked memory usage:
  |   Minimum:        0.327 MB (on task 0)
  |   Maximum:        0.327 MB (on task 0)
  |   Average:        0.327 MB
  | Peak value for overall tracked memory usage:
  |   Minimum:        9.435 MB (on task 0 after allocating min_atom_atom_tab)
  |   Maximum:        9.435 MB (on task 0 after allocating min_atom_atom_tab)
  |   Average:        9.435 MB
  | Largest tracked array allocation so far:
  |   Minimum:        6.223 MB (atom_atom_dist_list on task 0)
  |   Maximum:        6.223 MB (atom_atom_dist_list on task 0)
  |   Average:        6.223 MB
  Note:  These values currently only include a subset of arrays which are explicitly tracked.
  The "true" memory usage will be greater.
------------------------------------------------------------

------------------------------------------------------------
          Begin self-consistency iteration #    5

  Date     :  20220423, Time     :  182610.397
------------------------------------------------------------
  Pulay mixing of updated and previous charge densities.
  Renormalizing the density to the exact electron count on the 3D integration grid.
  | Formal number of electrons (from input files) :       2.0000000000
  | Integrated number of electrons on 3D grid     :       1.9983968404
  | Charge integration error                      :      -0.0016031596
  | Normalization factor for density and gradient :       1.0008022228

  Evaluating partitioned Hartree potential by multipole expansion.
  | Original multipole sum: apparent total charge =  -0.711947E-14
  | Sum of charges compensated after spline to logarithmic grids =  -0.266378E-06
  | Analytical far-field extrapolation by fixed multipoles:
  | Hartree multipole sum: apparent total charge =   0.000000E+00
  Summing up the Hartree potential.
  Time summed over all CPUs for potential: real work        0.662 s, elapsed        0.677 s
  | RMS charge density error from multipole expansion :   0.848376E-02
  | Average real-space part of the electrostatic potential :      0.84081698 eV

  Integrating Hamiltonian matrix: batch-based integration.
  Time summed over all CPUs for integration: real work        0.604 s, elapsed        0.612 s

  Updating Kohn-Sham eigenvalues and eigenvectors using ELSI and the (modified) LAPACK eigensolver.
  Starting LAPACK eigensolver
  Finished Cholesky decomposition
  | Time :     0.000 s
  Finished transformation to standard eigenproblem
  | Time :     0.000 s
  Finished solving standard eigenproblem
  | Time :     0.001 s
  Finished back-transformation of eigenvectors
  | Time :     0.000 s

  Obtaining occupation numbers and chemical potential using ELSI.
  | Chemical potential (Fermi level):    -8.67850535 eV
  What follows are estimated values for band gap, HOMO, LUMO, etc.
  | They are estimated on a discrete k-point grid and not necessarily exact.
  | For converged numbers, create a DOS and/or band structure plot on a denser k-grid.

  Highest occupied state (VBM) at     -8.83560165 eV (relative to internal zero)
  | Occupation number:      1.99999114
  | K-point:       1 at    0.000000    0.000000    0.000000 (in units of recip. lattice)

  Lowest unoccupied state (CBM) at    -8.52140904 eV (relative to internal zero)
  | Occupation number:      0.00000886
  | K-point:       2 at    0.000000    0.500000    0.000000 (in units of recip. lattice)

  ESTIMATED overall HOMO-LUMO gap:      0.31419261 eV between HOMO at k-point 1 and LUMO at k-point 2
  | This appears to be an indirect band gap.
  | Smallest direct gap :     12.35596257 eV for k_point 1 at    0.000000    0.000000    0.000000 (in units of recip. lattice)
  The gap value is above 0.2 eV. Unless you are using a very sparse k-point grid,
  this system is most likely an insulator or a semiconductor.

  Total energy components:
  | Sum of eigenvalues            :          -1.18823074 Ha         -32.33340368 eV
  | XC energy correction          :          -0.65869285 Ha         -17.92394449 eV
  | XC potential correction       :           0.85513232 Ha          23.26933425 eV
  | Free-atom electrostatic energy:          -0.36842609 Ha         -10.02538387 eV
  | Hartree energy correction     :          -0.00629588 Ha          -0.17131955 eV
  | Entropy correction            :          -0.00000001 Ha          -0.00000036 eV
  | ---------------------------
  | Total energy                  :          -1.36651324 Ha         -37.18471733 eV
  | Total energy, T -> 0          :          -1.36651326 Ha         -37.18471770 eV  <-- do not rely on this value for anything but (periodic) metals
  | Electronic free energy        :          -1.36651327 Ha         -37.18471806 eV

  Derived energy quantities:
  | Kinetic energy                :           0.69640856 Ha          18.95024110 eV
  | Electrostatic energy          :          -1.40422895 Ha         -38.21101394 eV
  | Energy correction for multipole
  | error in Hartree potential    :           0.00018005 Ha           0.00489932 eV
  | Sum of eigenvalues per atom                           :         -16.16670184 eV
  | Total energy (T->0) per atom                          :         -18.59235885 eV  <-- do not rely on this value for anything but (periodic) metals
  | Electronic free energy per atom                       :         -18.59235903 eV
  Evaluating new KS density using the density matrix
  Evaluating density matrix
  Time summed over all CPUs for getting density from density matrix: real work        0.878 s, elapsed        0.888 s
  Integration grid: deviation in total charge (<rho> - N_e) =  -4.729550E-14

  Self-consistency convergence accuracy:
  | Change of charge density      :  0.4467E-02
  | Change of sum of eigenvalues  :  0.1005E+00 eV
  | Change of total energy        :  0.6028E-02 eV


------------------------------------------------------------
  End self-consistency iteration #     5       :  max(cpu_time)    wall_clock(cpu1)
  | Time for this iteration                    :        1.386 s           1.386 s
  | Charge density update                      :        0.444 s           0.445 s
  | Density mixing & preconditioning           :        0.294 s           0.294 s
  | Hartree multipole update                   :        0.001 s           0.000 s
  | Hartree multipole summation                :        0.339 s           0.340 s
  | Integration                                :        0.306 s           0.306 s
  | Solution of K.-S. eqns.                    :        0.001 s           0.001 s
  | Total energy evaluation                    :        0.000 s           0.000 s

  Partial memory accounting:
  | Current value for overall tracked memory usage:
  |   Minimum:        0.327 MB (on task 0)
  |   Maximum:        0.327 MB (on task 0)
  |   Average:        0.327 MB
  | Peak value for overall tracked memory usage:
  |   Minimum:        9.435 MB (on task 0 after allocating min_atom_atom_tab)
  |   Maximum:        9.435 MB (on task 0 after allocating min_atom_atom_tab)
  |   Average:        9.435 MB
  | Largest tracked array allocation so far:
  |   Minimum:        6.223 MB (atom_atom_dist_list on task 0)
  |   Maximum:        6.223 MB (atom_atom_dist_list on task 0)
  |   Average:        6.223 MB
  Note:  These values currently only include a subset of arrays which are explicitly tracked.
  The "true" memory usage will be greater.
------------------------------------------------------------

------------------------------------------------------------
          Begin self-consistency iteration #    6

  Date     :  20220423, Time     :  182611.783
------------------------------------------------------------
  Pulay mixing of updated and previous charge densities.
  Renormalizing the density to the exact electron count on the 3D integration grid.
  | Formal number of electrons (from input files) :       2.0000000000
  | Integrated number of electrons on 3D grid     :       2.0000080289
  | Charge integration error                      :       0.0000080289
  | Normalization factor for density and gradient :       0.9999959856

  Evaluating partitioned Hartree potential by multipole expansion.
  | Original multipole sum: apparent total charge =  -0.146018E-14
  | Sum of charges compensated after spline to logarithmic grids =  -0.254653E-06
  | Analytical far-field extrapolation by fixed multipoles:
  | Hartree multipole sum: apparent total charge =   0.000000E+00
  Summing up the Hartree potential.
  Time summed over all CPUs for potential: real work        0.674 s, elapsed        0.689 s
  | RMS charge density error from multipole expansion :   0.839848E-02
  | Average real-space part of the electrostatic potential :      0.83212498 eV

  Integrating Hamiltonian matrix: batch-based integration.
  Time summed over all CPUs for integration: real work        0.647 s, elapsed        0.652 s

  Updating Kohn-Sham eigenvalues and eigenvectors using ELSI and the (modified) LAPACK eigensolver.
  Starting LAPACK eigensolver
  Finished Cholesky decomposition
  | Time :     0.000 s
  Finished transformation to standard eigenproblem
  | Time :     0.000 s
  Finished solving standard eigenproblem
  | Time :     0.000 s
  Finished back-transformation of eigenvectors
  | Time :     0.000 s

  Obtaining occupation numbers and chemical potential using ELSI.
  | Chemical potential (Fermi level):    -8.68050877 eV
  What follows are estimated values for band gap, HOMO, LUMO, etc.
  | They are estimated on a discrete k-point grid and not necessarily exact.
  | For converged numbers, create a DOS and/or band structure plot on a denser k-grid.

  Highest occupied state (VBM) at     -8.83442217 eV (relative to internal zero)
  | Occupation number:      1.99998659
  | K-point:       1 at    0.000000    0.000000    0.000000 (in units of recip. lattice)

  Lowest unoccupied state (CBM) at    -8.52659537 eV (relative to internal zero)
  | Occupation number:      0.00001341
  | K-point:       2 at    0.000000    0.500000    0.000000 (in units of recip. lattice)

  ESTIMATED overall HOMO-LUMO gap:      0.30782680 eV between HOMO at k-point 1 and LUMO at k-point 2
  | This appears to be an indirect band gap.
  | Smallest direct gap :     12.34466185 eV for k_point 1 at    0.000000    0.000000    0.000000 (in units of recip. lattice)
  The gap value is above 0.2 eV. Unless you are using a very sparse k-point grid,
  this system is most likely an insulator or a semiconductor.

  Total energy components:
  | Sum of eigenvalues            :          -1.18838052 Ha         -32.33747915 eV
  | XC energy correction          :          -0.65848766 Ha         -17.91836079 eV
  | XC potential correction       :           0.85490131 Ha          23.26304816 eV
  | Free-atom electrostatic energy:          -0.36842609 Ha         -10.02538387 eV
  | Hartree energy correction     :          -0.00618374 Ha          -0.16826825 eV
  | Entropy correction            :          -0.00000002 Ha          -0.00000054 eV
  | ---------------------------
  | Total energy                  :          -1.36657669 Ha         -37.18644389 eV
  | Total energy, T -> 0          :          -1.36657671 Ha         -37.18644443 eV  <-- do not rely on this value for anything but (periodic) metals
  | Electronic free energy        :          -1.36657673 Ha         -37.18644498 eV

  Derived energy quantities:
  | Kinetic energy                :           0.69627135 Ha          18.94650753 eV
  | Electrostatic energy          :          -1.40436039 Ha         -38.21459063 eV
  | Energy correction for multipole
  | error in Hartree potential    :           0.00018258 Ha           0.00496836 eV
  | Sum of eigenvalues per atom                           :         -16.16873957 eV
  | Total energy (T->0) per atom                          :         -18.59322222 eV  <-- do not rely on this value for anything but (periodic) metals
  | Electronic free energy per atom                       :         -18.59322249 eV
  Evaluating new KS density using the density matrix
  Evaluating density matrix
  Time summed over all CPUs for getting density from density matrix: real work        0.869 s, elapsed        0.879 s
  Integration grid: deviation in total charge (<rho> - N_e) =  -3.819167E-14

  Self-consistency convergence accuracy:
  | Change of charge density      :  0.2872E-01
  | Change of sum of eigenvalues  : -0.4075E-02 eV
  | Change of total energy        : -0.1727E-02 eV


------------------------------------------------------------
  End self-consistency iteration #     6       :  max(cpu_time)    wall_clock(cpu1)
  | Time for this iteration                    :        1.398 s           1.398 s
  | Charge density update                      :        0.440 s           0.440 s
  | Density mixing & preconditioning           :        0.286 s           0.285 s
  | Hartree multipole update                   :        0.001 s           0.001 s
  | Hartree multipole summation                :        0.345 s           0.345 s
  | Integration                                :        0.326 s           0.327 s
  | Solution of K.-S. eqns.                    :        0.001 s           0.000 s
  | Total energy evaluation                    :        0.000 s           0.000 s

  Partial memory accounting:
  | Current value for overall tracked memory usage:
  |   Minimum:        0.327 MB (on task 0)
  |   Maximum:        0.327 MB (on task 0)
  |   Average:        0.327 MB
  | Peak value for overall tracked memory usage:
  |   Minimum:        9.435 MB (on task 0 after allocating min_atom_atom_tab)
  |   Maximum:        9.435 MB (on task 0 after allocating min_atom_atom_tab)
  |   Average:        9.435 MB
  | Largest tracked array allocation so far:
  |   Minimum:        6.223 MB (atom_atom_dist_list on task 0)
  |   Maximum:        6.223 MB (atom_atom_dist_list on task 0)
  |   Average:        6.223 MB
  Note:  These values currently only include a subset of arrays which are explicitly tracked.
  The "true" memory usage will be greater.
------------------------------------------------------------

------------------------------------------------------------
          Begin self-consistency iteration #    7

  Date     :  20220423, Time     :  182613.181
------------------------------------------------------------
  Pulay mixing of updated and previous charge densities.
  Renormalizing the density to the exact electron count on the 3D integration grid.
  | Formal number of electrons (from input files) :       2.0000000000
  | Integrated number of electrons on 3D grid     :       2.0011003594
  | Charge integration error                      :       0.0011003594
  | Normalization factor for density and gradient :       0.9994501228

  Evaluating partitioned Hartree potential by multipole expansion.
  | Original multipole sum: apparent total charge =  -0.678141E-14
  | Sum of charges compensated after spline to logarithmic grids =   0.532391E-07
  | Analytical far-field extrapolation by fixed multipoles:
  | Hartree multipole sum: apparent total charge =   0.000000E+00
  Summing up the Hartree potential.
  Time summed over all CPUs for potential: real work        0.675 s, elapsed        0.691 s
  | RMS charge density error from multipole expansion :   0.404439E-02
  | Average real-space part of the electrostatic potential :      0.25682349 eV

  Integrating Hamiltonian matrix: batch-based integration.
  Time summed over all CPUs for integration: real work        0.613 s, elapsed        0.620 s

  Updating Kohn-Sham eigenvalues and eigenvectors using ELSI and the (modified) LAPACK eigensolver.
  Starting LAPACK eigensolver
  Finished Cholesky decomposition
  | Time :     0.000 s
  Finished transformation to standard eigenproblem
  | Time :     0.000 s
  Finished solving standard eigenproblem
  | Time :     0.000 s
  Finished back-transformation of eigenvectors
  | Time :     0.000 s

  Obtaining occupation numbers and chemical potential using ELSI.
  | Chemical potential (Fermi level):    -8.73482763 eV
  What follows are estimated values for band gap, HOMO, LUMO, etc.
  | They are estimated on a discrete k-point grid and not necessarily exact.
  | For converged numbers, create a DOS and/or band structure plot on a denser k-grid.

  Highest occupied state (VBM) at     -8.75112293 eV (relative to internal zero)
  | Occupation number:      1.35513019
  | K-point:       1 at    0.000000    0.000000    0.000000 (in units of recip. lattice)

  Lowest unoccupied state (CBM) at    -8.71853233 eV (relative to internal zero)
  | Occupation number:      0.64486981
  | K-point:       2 at    0.000000    0.500000    0.000000 (in units of recip. lattice)

  ESTIMATED overall HOMO-LUMO gap:      0.03259061 eV between HOMO at k-point 1 and LUMO at k-point 2
  | This appears to be an indirect band gap.
  | Smallest direct gap :     11.87504858 eV for k_point 1 at    0.000000    0.000000    0.000000 (in units of recip. lattice)
  However, this system has fractional occupation numbers. Since we use a finite k-point grid,
  this material is metallic within the approximate finite broadening function (occupation_type)
  applied to determine the occupation numbers.

  Total energy components:
  | Sum of eigenvalues            :          -1.19192191 Ha         -32.43384550 eV
  | XC energy correction          :          -0.65137369 Ha         -17.72477996 eV
  | XC potential correction       :           0.84680086 Ha          23.04262370 eV
  | Free-atom electrostatic energy:          -0.36842609 Ha         -10.02538387 eV
  | Hartree energy correction     :          -0.00194780 Ha          -0.05300234 eV
  | Entropy correction            :          -0.00023305 Ha          -0.00634171 eV
  | ---------------------------
  | Total energy                  :          -1.36686863 Ha         -37.19438797 eV
  | Total energy, T -> 0          :          -1.36710169 Ha         -37.20072969 eV  <-- do not rely on this value for anything but (periodic) metals
  | Electronic free energy        :          -1.36733474 Ha         -37.20707140 eV

  Derived energy quantities:
  | Kinetic energy                :           0.69366349 Ha          18.87554398 eV
  | Electrostatic energy          :          -1.40915843 Ha         -38.34515199 eV
  | Energy correction for multipole
  | error in Hartree potential    :           0.00023091 Ha           0.00628338 eV
  | Sum of eigenvalues per atom                           :         -16.21692275 eV
  | Total energy (T->0) per atom                          :         -18.60036484 eV  <-- do not rely on this value for anything but (periodic) metals
  | Electronic free energy per atom                       :         -18.60353570 eV
  Evaluating new KS density using the density matrix
  Evaluating density matrix
  Time summed over all CPUs for getting density from density matrix: real work        0.880 s, elapsed        0.890 s
  Integration grid: deviation in total charge (<rho> - N_e) =  -8.970602E-14

  Self-consistency convergence accuracy:
  | Change of charge density      :  0.2790E-01
  | Change of sum of eigenvalues  : -0.9637E-01 eV
  | Change of total energy        : -0.7944E-02 eV


------------------------------------------------------------
  End self-consistency iteration #     7       :  max(cpu_time)    wall_clock(cpu1)
  | Time for this iteration                    :        1.397 s           1.396 s
  | Charge density update                      :        0.445 s           0.446 s
  | Density mixing & preconditioning           :        0.293 s           0.293 s
  | Hartree multipole update                   :        0.001 s           0.000 s
  | Hartree multipole summation                :        0.346 s           0.346 s
  | Integration                                :        0.310 s           0.311 s
  | Solution of K.-S. eqns.                    :        0.001 s           0.000 s
  | Total energy evaluation                    :        0.000 s           0.000 s

  Partial memory accounting:
  | Current value for overall tracked memory usage:
  |   Minimum:        0.327 MB (on task 0)
  |   Maximum:        0.327 MB (on task 0)
  |   Average:        0.327 MB
  | Peak value for overall tracked memory usage:
  |   Minimum:        9.435 MB (on task 0 after allocating min_atom_atom_tab)
  |   Maximum:        9.435 MB (on task 0 after allocating min_atom_atom_tab)
  |   Average:        9.435 MB
  | Largest tracked array allocation so far:
[...]

  ESTIMATED overall HOMO-LUMO gap:      0.12446900 eV between HOMO at k-point 1 and LUMO at k-point 2
  | This appears to be an indirect band gap.
  | Smallest direct gap :     12.01946352 eV for k_point 1 at    0.000000    0.000000    0.000000 (in units of recip. lattice)
  However, this system has fractional occupation numbers. Since we use a finite k-point grid,
  this material is metallic within the approximate finite broadening function (occupation_type)
  applied to determine the occupation numbers.
  | Chemical Potential                          :    -8.72500514 eV

  Self-consistency cycle converged.


------------------------------------------------------------
  End self-consistency iteration #    29       :  max(cpu_time)    wall_clock(cpu1)
  | Time for this iteration                    :        0.967 s           0.967 s
  | Charge density update                      :        0.000 s           0.000 s
  | Density mixing                             :        0.297 s           0.298 s
  | Hartree multipole update                   :        0.001 s           0.000 s
  | Hartree multipole summation                :        0.356 s           0.356 s
  | Integration                                :        0.312 s           0.312 s
  | Solution of K.-S. eqns.                    :        0.001 s           0.001 s
  | Total energy evaluation                    :        0.000 s           0.000 s

  Partial memory accounting:
  | Current value for overall tracked memory usage:
  |   Minimum:        0.327 MB (on task 0)
  |   Maximum:        0.327 MB (on task 0)
  |   Average:        0.327 MB
  | Peak value for overall tracked memory usage:
  |   Minimum:        9.435 MB (on task 0 after allocating min_atom_atom_tab)
  |   Maximum:        9.435 MB (on task 0 after allocating min_atom_atom_tab)
  |   Average:        9.435 MB
  | Largest tracked array allocation so far:
  |   Minimum:        6.223 MB (atom_atom_dist_list on task 0)
  |   Maximum:        6.223 MB (atom_atom_dist_list on task 0)
  |   Average:        6.223 MB
  Note:  These values currently only include a subset of arrays which are explicitly tracked.
  The "true" memory usage will be greater.
------------------------------------------------------------

  Energy and forces in a compact form:
  | Total energy uncorrected      :         -0.372083030911969E+02 eV
  | Total energy corrected        :         -0.372098010606992E+02 eV  <-- do not rely on this value for anything but (periodic) metals
  | Electronic free energy        :         -0.372112990302015E+02 eV

  ------------------------------------ 
  Start decomposition of the XC Energy 
  ------------------------------------ 
  X and C from original XC functional choice 
  Hartree-Fock Energy :          0.000000000 Ha              0.000000000 eV
  X Energy            :         -0.579037406 Ha            -15.756409487 eV
  C Energy            :         -0.073908652 Ha             -2.011156740 eV
  Total XC Energy     :         -0.652946057 Ha            -17.767566228 eV
  ------------------------------------ 
  LDA X and C from self-consistent density 
  X Energy LDA        :         -0.551544860 Ha            -15.008299266 eV
  C Energy LDA        :         -0.096625461 Ha             -2.629312563 eV
  ------------------------------------ 
  End decomposition of the XC Energy 
  ------------------------------------ 

------------------------------------------------------------

  -------------------------------------------------------------------
  Writing the requested band structure output (LAPACK version):
  -------------------------------------------------------------------

  Integrating Hamiltonian matrix: batch-based integration.
  Time summed over all CPUs for integration: real work        0.633 s, elapsed        0.639 s

  Treating all   64 k-points in band plot segment #   1:

  | Writing complex overlap matrix in file:
  | KS_overlap_matrix.band_1.kpt_2.out
  | Writing complex hamiltonian matrix: File KS_hamiltonian_matrix.band_1.kpt_2.out
  | ... finished writing complex hamiltonian matrix: File KS_hamiltonian_matrix.band_1.kpt_2.out
  Overlap matrix is not singular
  | Lowest and highest eigenvalues :  0.2758E+00,  0.6754E+01
  Finished singularity check of overlap matrix
  | Time :     0.000 s
  Starting LAPACK eigensolver
  Finished Cholesky decomposition
  | Time :     0.000 s
  Finished transformation to standard eigenproblem
  | Time :     0.000 s
  Finished solving standard eigenproblem
  | Time :     0.000 s
  Finished back-transformation of eigenvectors
  | Time :     0.000 s
  | Writing complex overlap matrix in file:
  | KS_overlap_matrix.band_1.kpt_4.out
  | Writing complex hamiltonian matrix: File KS_hamiltonian_matrix.band_1.kpt_4.out
  | ... finished writing complex hamiltonian matrix: File KS_hamiltonian_matrix.band_1.kpt_4.out
  | Writing complex overlap matrix in file:
  | KS_overlap_matrix.band_1.kpt_6.out
  | Writing complex hamiltonian matrix: File KS_hamiltonian_matrix.band_1.kpt_6.out
  | ... finished writing complex hamiltonian matrix: File KS_hamiltonian_matrix.band_1.kpt_6.out
  | Writing complex overlap matrix in file:
  | KS_overlap_matrix.band_1.kpt_8.out
  | Writing complex hamiltonian matrix: File KS_hamiltonian_matrix.band_1.kpt_8.out
  | ... finished writing complex hamiltonian matrix: File KS_hamiltonian_matrix.band_1.kpt_8.out
  | Writing complex overlap matrix in file:
  | KS_overlap_matrix.band_1.kpt_10.out
  | Writing complex hamiltonian matrix: File KS_hamiltonian_matrix.band_1.kpt_10.out
  | ... finished writing complex hamiltonian matrix: File KS_hamiltonian_matrix.band_1.kpt_10.out
  | Writing complex overlap matrix in file:
  | KS_overlap_matrix.band_1.kpt_12.out
  | Writing complex hamiltonian matrix: File KS_hamiltonian_matrix.band_1.kpt_12.out
  | ... finished writing complex hamiltonian matrix: File KS_hamiltonian_matrix.band_1.kpt_12.out
  | Writing complex overlap matrix in file:
  | KS_overlap_matrix.band_1.kpt_14.out
  | Writing complex hamiltonian matrix: File KS_hamiltonian_matrix.band_1.kpt_14.out
  | ... finished writing complex hamiltonian matrix: File KS_hamiltonian_matrix.band_1.kpt_14.out
  | Writing complex overlap matrix in file:
  | KS_overlap_matrix.band_1.kpt_16.out
  | Writing complex hamiltonian matrix: File KS_hamiltonian_matrix.band_1.kpt_16.out
  | ... finished writing complex hamiltonian matrix: File KS_hamiltonian_matrix.band_1.kpt_16.out
  | Writing complex overlap matrix in file:
  | KS_overlap_matrix.band_1.kpt_18.out
  | Writing complex hamiltonian matrix: File KS_hamiltonian_matrix.band_1.kpt_18.out
  | ... finished writing complex hamiltonian matrix: File KS_hamiltonian_matrix.band_1.kpt_18.out
  | Writing complex overlap matrix in file:
  | KS_overlap_matrix.band_1.kpt_20.out
  | Writing complex hamiltonian matrix: File KS_hamiltonian_matrix.band_1.kpt_20.out
  | ... finished writing complex hamiltonian matrix: File KS_hamiltonian_matrix.band_1.kpt_20.out
  | Writing complex overlap matrix in file:
  | KS_overlap_matrix.band_1.kpt_22.out
  | Writing complex hamiltonian matrix: File KS_hamiltonian_matrix.band_1.kpt_22.out
  | ... finished writing complex hamiltonian matrix: File KS_hamiltonian_matrix.band_1.kpt_22.out
  | Writing complex overlap matrix in file:
  | KS_overlap_matrix.band_1.kpt_24.out
  | Writing complex hamiltonian matrix: File KS_hamiltonian_matrix.band_1.kpt_24.out
  | ... finished writing complex hamiltonian matrix: File KS_hamiltonian_matrix.band_1.kpt_24.out
  | Writing complex overlap matrix in file:
  | KS_overlap_matrix.band_1.kpt_26.out
  | Writing complex hamiltonian matrix: File KS_hamiltonian_matrix.band_1.kpt_26.out
  | ... finished writing complex hamiltonian matrix: File KS_hamiltonian_matrix.band_1.kpt_26.out
  | Writing complex overlap matrix in file:
  | KS_overlap_matrix.band_1.kpt_28.out
  | Writing complex hamiltonian matrix: File KS_hamiltonian_matrix.band_1.kpt_28.out
  | ... finished writing complex hamiltonian matrix: File KS_hamiltonian_matrix.band_1.kpt_28.out
  | Writing complex overlap matrix in file:
  | KS_overlap_matrix.band_1.kpt_30.out
  | Writing complex hamiltonian matrix: File KS_hamiltonian_matrix.band_1.kpt_30.out
  | ... finished writing complex hamiltonian matrix: File KS_hamiltonian_matrix.band_1.kpt_30.out
  | Writing complex overlap matrix in file:
  | KS_overlap_matrix.band_1.kpt_32.out
  | Writing complex hamiltonian matrix: File KS_hamiltonian_matrix.band_1.kpt_32.out
  | ... finished writing complex hamiltonian matrix: File KS_hamiltonian_matrix.band_1.kpt_32.out
  | Writing complex overlap matrix in file:
  | KS_overlap_matrix.band_1.kpt_34.out
  | Writing complex hamiltonian matrix: File KS_hamiltonian_matrix.band_1.kpt_34.out
  | ... finished writing complex hamiltonian matrix: File KS_hamiltonian_matrix.band_1.kpt_34.out
  | Writing complex overlap matrix in file:
  | KS_overlap_matrix.band_1.kpt_36.out
  | Writing complex hamiltonian matrix: File KS_hamiltonian_matrix.band_1.kpt_36.out
  | ... finished writing complex hamiltonian matrix: File KS_hamiltonian_matrix.band_1.kpt_36.out
  | Writing complex overlap matrix in file:
  | KS_overlap_matrix.band_1.kpt_38.out
  | Writing complex hamiltonian matrix: File KS_hamiltonian_matrix.band_1.kpt_38.out
  | ... finished writing complex hamiltonian matrix: File KS_hamiltonian_matrix.band_1.kpt_38.out
  | Writing complex overlap matrix in file:
  | KS_overlap_matrix.band_1.kpt_40.out
  | Writing complex hamiltonian matrix: File KS_hamiltonian_matrix.band_1.kpt_40.out
  | ... finished writing complex hamiltonian matrix: File KS_hamiltonian_matrix.band_1.kpt_40.out
  | Writing complex overlap matrix in file:
  | KS_overlap_matrix.band_1.kpt_42.out
  | Writing complex hamiltonian matrix: File KS_hamiltonian_matrix.band_1.kpt_42.out
  | ... finished writing complex hamiltonian matrix: File KS_hamiltonian_matrix.band_1.kpt_42.out
  | Writing complex overlap matrix in file:
  | KS_overlap_matrix.band_1.kpt_44.out
  | Writing complex hamiltonian matrix: File KS_hamiltonian_matrix.band_1.kpt_44.out
  | ... finished writing complex hamiltonian matrix: File KS_hamiltonian_matrix.band_1.kpt_44.out
  | Writing complex overlap matrix in file:
  | KS_overlap_matrix.band_1.kpt_46.out
  | Writing complex hamiltonian matrix: File KS_hamiltonian_matrix.band_1.kpt_46.out
  | ... finished writing complex hamiltonian matrix: File KS_hamiltonian_matrix.band_1.kpt_46.out
  | Writing complex overlap matrix in file:
  | KS_overlap_matrix.band_1.kpt_48.out
  | Writing complex hamiltonian matrix: File KS_hamiltonian_matrix.band_1.kpt_48.out
  | ... finished writing complex hamiltonian matrix: File KS_hamiltonian_matrix.band_1.kpt_48.out
  | Writing complex overlap matrix in file:
  | KS_overlap_matrix.band_1.kpt_50.out
  | Writing complex hamiltonian matrix: File KS_hamiltonian_matrix.band_1.kpt_50.out
  | ... finished writing complex hamiltonian matrix: File KS_hamiltonian_matrix.band_1.kpt_50.out
  | Writing complex overlap matrix in file:
  | KS_overlap_matrix.band_1.kpt_52.out
  | Writing complex hamiltonian matrix: File KS_hamiltonian_matrix.band_1.kpt_52.out
  | ... finished writing complex hamiltonian matrix: File KS_hamiltonian_matrix.band_1.kpt_52.out
  | Writing complex overlap matrix in file:
  | KS_overlap_matrix.band_1.kpt_54.out
  | Writing complex hamiltonian matrix: File KS_hamiltonian_matrix.band_1.kpt_54.out
  | ... finished writing complex hamiltonian matrix: File KS_hamiltonian_matrix.band_1.kpt_54.out
  | Writing complex overlap matrix in file:
  | KS_overlap_matrix.band_1.kpt_56.out
  | Writing complex hamiltonian matrix: File KS_hamiltonian_matrix.band_1.kpt_56.out
  | ... finished writing complex hamiltonian matrix: File KS_hamiltonian_matrix.band_1.kpt_56.out
  | Writing complex overlap matrix in file:
  | KS_overlap_matrix.band_1.kpt_58.out
  | Writing complex hamiltonian matrix: File KS_hamiltonian_matrix.band_1.kpt_58.out
  | ... finished writing complex hamiltonian matrix: File KS_hamiltonian_matrix.band_1.kpt_58.out
  | Writing complex overlap matrix in file:
  | KS_overlap_matrix.band_1.kpt_60.out
  | Writing complex hamiltonian matrix: File KS_hamiltonian_matrix.band_1.kpt_60.out
  | ... finished writing complex hamiltonian matrix: File KS_hamiltonian_matrix.band_1.kpt_60.out
  | Writing complex overlap matrix in file:
  | KS_overlap_matrix.band_1.kpt_62.out
  | Writing complex hamiltonian matrix: File KS_hamiltonian_matrix.band_1.kpt_62.out
  | ... finished writing complex hamiltonian matrix: File KS_hamiltonian_matrix.band_1.kpt_62.out
  | Writing complex overlap matrix in file:
  | KS_overlap_matrix.band_1.kpt_64.out
  | Writing complex hamiltonian matrix: File KS_hamiltonian_matrix.band_1.kpt_64.out
  | ... finished writing complex hamiltonian matrix: File KS_hamiltonian_matrix.band_1.kpt_64.out

  "Band gap" along reciprocal space direction number:    1
  | Lowest unoccupied state:       3.24215393 eV
  | Highest occupied state :      -8.79369964 eV
  | Energy difference      :      12.03585357 eV

  "Band gap" of total set of bands:
  | Lowest unoccupied state:       3.24215393 eV
  | Highest occupied state :      -8.79369964 eV
  | Energy difference      :      12.03585357 eV


  Band Structure                                          :  max(cpu_time) wall_clock(cpu1)
  | Total Time                                            :          0.341            0.343
------------------------------------------------------------

------------------------------------------------------------------------------
  Final output of selected total energy values:

  The following output summarizes some interesting total energy values
  at the end of a run (AFTER all relaxation, molecular dynamics, etc.).

  | Total energy of the DFT / Hartree-Fock s.c.f. calculation      :            -37.208303091 eV
  | Final zero-broadening corrected energy (caution - metals only) :            -37.209801061 eV
  | For reference only, the value of 1 Hartree used in FHI-aims is :             27.211384500 eV
  | For reference only, the overall average (free atom contribution
  | + realspace contribution) of the electrostatic potential after
  | s.c.f. convergence is                                          :             -8.482972004 eV

  Before relying on these values, please be sure to understand exactly which
  total energy value is referred to by a given number. Different objects may
  all carry the same name 'total energy'. Definitions:

  Total energy of the DFT / Hartree-Fock s.c.f. calculation:
  | Note that this energy does not include ANY quantities calculated after the
  | s.c.f. cycle, in particular not ANY RPA, MP2, etc. many-body perturbation terms.

  Final zero-broadening corrected energy:
  | For metallic systems only, a broadening of the occupation numbers at the Fermi
  | level can be extrapolated back to zero broadening by an electron-gas inspired
  | formula. For all systems that are not real metals, this value can be
  | meaningless and should be avoided.

------------------------------------------------------------------------------
  Methods described in the following list of references were used in this FHI-aims run.
  If you publish the results, please make sure to cite these reference if they apply.
  FHI-aims is an academic code, and for our developers (often, Ph.D. students
  and postdocs), scientific credit in the community is essential.
  Thank you for helping us!

  For any use of FHI-aims, please cite:

    Volker Blum, Ralf Gehrke, Felix Hanke, Paula Havu, Ville Havu,
    Xinguo Ren, Karsten Reuter, and Matthias Scheffler
    'Ab initio molecular simulations with numeric atom-centered orbitals'
    Computer Physics Communications 180, 2175-2196 (2009)
    http://dx.doi.org/10.1016/j.cpc.2009.06.022


  The provided symmetry information was generated with SPGlib:

    Atsushi Togo, Yusuke Seto, Dimitar Pashov
    SPGlib 1.7.3 obtained from http://spglib.sourceforge.net
    Copyright (C) 2008 Atsushi Togo


  The ELSI infrastructure was used in your run to solve the Kohn-Sham electronic structure.
  Please check out http://elsi-interchange.org to learn more.
  If scalability is important for your project, please acknowledge ELSI by citing:

    V. W-z. Yu, F. Corsetti, A. Garcia, W. P. Huhn, M. Jacquelin, W. Jia,
    B. Lange, L. Lin, J. Lu, W. Mi, A. Seifitokaldani, A. Vazquez-Mayagoitia,
    C. Yang, H. Yang, and V. Blum
    'ELSI: A unified software interface for Kohn-Sham electronic structure solvers'
    Computer Physics Communications 222, 267-285 (2018).
    http://dx.doi.org/10.1016/j.cpc.2017.09.007


  For the real-space grid partitioning and parallelization used in this calculation, please cite:

    Ville Havu, Volker Blum, Paula Havu, and Matthias Scheffler,
    'Efficient O(N) integration for all-electron electronic structure calculation'
    'using numerically tabulated basis functions'
    Journal of Computational Physics 228, 8367-8379 (2009).
    http://dx.doi.org/10.1016/j.jcp.2009.08.008

  Of course, there are many other important community references, e.g., those cited in the
  above references. Our list is limited to references that describe implementations in the
  FHI-aims code. The reason is purely practical (length of this list) - please credit others as well.

------------------------------------------------------------
          Leaving FHI-aims.
          Date     :  20220423, Time     :  182645.998

          Computational steps:
          | Number of self-consistency cycles          :           29
          | Number of SCF (re)initializations          :            1

          Detailed time accounting                     :  max(cpu_time)    wall_clock(cpu1)
          | Total time                                 :       44.617 s          44.733 s
          | Preparation time                           :        0.053 s           0.068 s
          | Boundary condition initalization           :        0.240 s           0.240 s
          | Grid partitioning                          :        0.025 s           0.029 s
          | Preloading free-atom quantities on grid    :        1.905 s           1.912 s
          | Free-atom superposition energy             :        0.120 s           0.121 s
          | Total time for integrations                :        9.729 s           9.735 s
          | Total time for solution of K.-S. equations :        0.025 s           0.042 s
          | Total time for density update              :       13.255 s          13.259 s
          | Total time for mixing & preconditioning    :        8.588 s           8.589 s
          | Total time for Hartree multipole update    :        0.016 s           0.016 s
          | Total time for Hartree multipole sum       :       10.250 s          10.256 s
          | Total time for total energy evaluation     :        0.004 s           0.005 s
          | Total time for scaled ZORA corrections     :        0.000 s           0.000 s
          | Total time for band structures, DOS        :        0.341 s           0.343 s

          Partial memory accounting:
          | Residual value for overall tracked memory usage across tasks:     0.000000 MB (should be 0.000000 MB)
          | Peak values for overall tracked memory usage:
          |   Minimum:        9.435 MB (on task 0 after allocating min_atom_atom_tab)
          |   Maximum:        9.435 MB (on task 0 after allocating min_atom_atom_tab)
          |   Average:        9.435 MB
          | Largest tracked array allocation:
          |   Minimum:        6.223 MB (atom_atom_dist_list on task 0)
          |   Maximum:        6.223 MB (atom_atom_dist_list on task 0)
          |   Average:        6.223 MB
          Note:  These values currently only include a subset of arrays which are explicitly tracked.
          The "true" memory usage will be greater.

          Have a nice day.
------------------------------------------------------------
